ITEM: TIMESTEP
0
ITEM: NUMBER OF ATOMS
96
ITEM: BOX BOUNDS xy xz yz pp pp pp
0.0000000000000000e+00 1.1860140999999999e+01 1.7303549999999999e+00
0.0000000000000000e+00 1.0371119000000000e+01 0.0000000000000000e+00
0.0000000000000000e+00 1.0263142999999999e+01 0.0000000000000000e+00
ITEM: ATOMS id type element c_pa x y z fx fy fz
1 2 Hf -14.8841 10.4026 9.10077 7.59496 1.19735 2.99585 1.61121
2 2 Hf -14.9956 9.27324 3.75485 2.66718 1.53119 -0.854509 -2.41042
3 2 Hf -14.8199 9.04006 1.34355 10.0841 0.719022 -0.909174 0.924568
4 2 Hf -14.7364 10.4532 9.29503 2.58761 -1.01538 -3.96979 -3.69428
5 2 Hf -14.7122 10.1772 6.5437 10.1952 -2.30553 -1.9557 0.696084
6 2 Hf -15.0296 8.99299 1.34727 5.3808 1.81149 -1.61019 -2.0402
7 2 Hf -14.8656 9.99797 6.59486 5.66164 -3.97793 0.0168326 -2.74411
8 2 Hf -15.0404 4.06509 3.62201 2.56308 1.93033 -0.45033 0.00638919
9 2 Hf -14.8115 1.86464 4.18365 5.3729 1.9612 -0.808799 -4.53731
10 2 Hf -15.0483 1.48071 1.38698 2.50722 0.722259 -1.21661 0.981758
11 2 Hf -14.8574 5.31632 8.73432 2.60516 -1.62809 -0.854306 -2.25855
12 2 Hf -14.9065 2.92043 9.05261 4.93966 -1.35116 3.54556 0.0833921
13 2 Hf -14.6859 5.28479 8.6997 7.3567 -2.14022 3.03531 2.93237
14 2 Hf -14.8012 2.5417 6.81766 7.97435 0.677462 0.0298266 2.55273
15 2 Hf -14.9079 4.63238 6.30924 5.41921 0.656312 -2.4744 -0.431923
16 2 Hf -15.0011 4.38713 3.78168 7.77451 -2.40825 1.76753 -0.647035
17 2 Hf -14.9029 1.93337 4.07044 10.1809 2.08926 -2.6799 1.43302
18 2 Hf -14.9551 1.63382 1.38577 7.78546 -0.238921 -0.17606 2.2067
19 2 Hf -14.8275 3.82821 1.12031 5.15143 -0.445703 -1.29716 0.571648
20 2 Hf -15.0069 2.8216 9.07532 0.07458 0.767184 2.24376 -1.02072
21 2 Hf -14.8895 1.92977 6.41285 2.48325 2.20357 -0.193806 1.63267
22 2 Hf -15.0813 4.82588 6.24923 0.35097 -0.80607 0.172946 -0.799125
23 2 Hf -14.8774 3.97174 1.10832 10.251 -1.95168 -0.844608 2.68592
24 2 Hf -14.8786 7.92451 9.21975 0.06928 1.22832 1.51968 1.3327
25 2 Hf -14.9075 7.20379 4.15931 0.01406 0.707779 -0.115927 -1.87691
26 2 Hf -14.9204 8.07361 9.46649 5.06584 1.55563 -3.37185 -2.17517
27 2 Hf -15.1193 7.74071 6.74119 2.94789 1.40246 -2.24084 -0.696895
28 2 Hf -14.8852 6.82177 4.20543 4.87072 3.48587 0.077943 -0.962177
29 2 Hf -14.974 6.75829 1.37753 2.64756 -0.466182 3.19907 -1.6857
30 2 Hf -14.8612 7.56902 6.89387 8.08736 0.137819 -3.19798 -2.01228
31 2 Hf -14.8189 9.34123 3.87447 7.39529 -4.78381 -0.326435 3.31309
32 2 Hf -14.7313 6.45886 1.33595 7.74788 3.78783 2.401 0.686306
33 1 O -7.60277 10.2967 2.3016 6.6799 0.25082 -0.590052 -1.29217
34 1 O -7.52811 11.2836 7.61322 6.60524 2.59472 -0.830106 1.04669
35 1 O -7.26393 11.6946 10.0602 6.33253 -1.11048 -0.636644 -0.0481098
36 1 O -7.21344 11.1541 7.5713 1.22822 -0.305721 1.1718 1.44194
37 1 O -7.54403 8.23875 2.4642 3.7702 -0.314723 -0.964837 -0.544469
38 1 O -7.29692 10.1568 2.19171 1.64256 -1.62986 -0.0443587 -2.54517
39 1 O -7.65045 0.84549 5.04928 1.46181 -0.931305 0.0516056 -1.07367
40 1 O -7.48085 7.93686 0.03196 3.82805 -1.59321 1.57151 2.74486
41 1 O -7.46557 9.14024 7.70935 4.27334 0.151078 0.833086 -1.181
42 1 O -7.36005 11.7762 10.0428 1.39321 1.22989 1.18655 -1.20517
43 1 O -7.36416 10.6199 4.90306 6.48885 1.98393 0.0975782 1.00811
44 1 O -7.4879 3.61339 4.79611 4.35879 -0.357124 -1.01371 -0.779318
45 1 O -7.6012 3.03347 2.1937 3.73736 0.684643 0.499128 0.977168
46 1 O -7.31098 4.99711 1.96587 1.54317 -0.184756 -0.282828 0.436469
47 1 O -7.48874 0.37888 0.58322 4.08352 0.746538 0.0340192 -0.521208
48 1 O -7.58395 4.71368 9.91685 4.06418 -0.698154 0.874066 -0.0165122
49 1 O -7.30687 4.02902 7.60065 4.14643 0.311151 -0.0371477 -3.18195
50 1 O -7.42822 6.21889 6.90659 1.5554 -0.830202 1.83525 0.393119
51 1 O -7.28254 6.49332 9.75701 1.36514 1.17557 0.209763 -0.90736
52 1 O -7.19659 5.48288 4.42157 0.79284 -0.368094 -0.326424 1.2269
53 1 O -7.65421 3.60982 7.90972 6.48227 -0.200543 0.0903439 0.373243
54 1 O -7.45369 3.32205 5.50302 6.83999 -0.374039 -1.76114 -1.93203
55 1 O -7.62042 4.0068 7.92261 8.9673 -0.877481 -1.34298 0.147435
56 1 O -7.47142 6.04588 7.07057 6.71427 0.0112282 0.15438 -1.03781
57 1 O -7.36503 1.14098 5.32881 9.02994 -1.04605 3.66531 -2.49651
58 1 O -7.41378 6.61858 9.63931 6.27792 -0.981477 0.923661 0.0400845
59 1 O -7.60898 3.54158 5.22051 9.2604 -0.227797 -0.817862 -0.315752
60 1 O -7.6007 2.73244 2.98604 6.69826 -0.269407 -1.59737 -0.532704
61 1 O -7.64304 2.33625 0.19042 6.3583 1.23341 -0.332586 -0.231613
62 1 O -7.70598 3.17378 2.5606 9.10818 0.0871396 0.912937 -0.245663
63 1 O -7.43572 4.85541 1.72134 6.77307 -0.464765 1.6698 -0.074771
64 1 O -7.29502 1.88174 10.2942 8.80947 -0.852561 2.30714 0.707163
65 1 O -7.51599 0.52978 2.81706 9.30345 -0.0617464 -0.711495 -0.581587
66 1 O -7.42875 5.57291 4.51386 6.26417 -1.28124 -0.14715 0.795185
67 1 O -7.15913 2.47556 0.16478 9.12778 1.63265 -0.943236 -0.103861
68 1 O -7.66354 11.4337 8.00536 9.24377 -0.628524 -0.91977 -1.71259
69 1 O -7.6384 3.4793 7.6632 1.34558 1.74596 0.0817692 1.03106
70 1 O -7.53168 3.37775 5.24193 1.62066 -0.471884 0.425503 0.0740788
71 1 O -7.37302 1.25339 5.92274 4.34822 0.285728 -0.0139758 -0.11965
72 1 O -7.50763 2.52306 2.82497 1.44673 0.773972 -0.79941 -0.74391
73 1 O -7.54511 4.18634 10.2821 1.28405 -0.41619 0.864558 1.24186
74 1 O -7.22961 0.84255 3.43326 3.69222 0.465022 -0.473838 1.73223
75 1 O -7.44342 1.61469 8.28439 3.61401 1.36081 -0.382097 1.08665
76 1 O -7.41338 7.72518 0.03502 8.92469 0.183809 -1.68342 -0.243395
77 1 O -7.52034 8.83767 7.69684 9.29287 1.27517 1.63331 0.805981
78 1 O -7.5739 8.35958 5.23403 1.42825 -0.274139 -0.121366 -1.22471
79 1 O -7.40775 6.13601 5.81572 3.90519 -0.667494 1.22055 1.59934
80 1 O -7.46215 8.63056 5.00771 3.92505 -0.87324 2.46133 2.50821
81 1 O -7.54438 7.70754 2.51775 1.09511 0.584058 2.2043 -0.582459
82 1 O -7.44665 7.67183 0.21028 1.25003 -1.16286 -1.28902 -0.942739
83 1 O -7.62696 5.62807 0.77673 4.14928 -2.31662 -0.165546 1.27794
84 1 O -7.36536 6.05244 3.39162 3.30354 -1.50381 -1.36597 -0.313658
85 1 O -7.45043 8.69187 8.02749 1.66186 1.13706 1.09548 -1.15669
86 1 O -7.40296 6.93478 8.38396 3.62816 -1.09658 1.93435 1.65735
87 1 O -7.71709 7.4891 0.22403 6.2235 0.358418 1.10874 2.52577
88 1 O -7.3394 5.6557 0.77736 9.35038 -1.92337 -0.903597 1.62788
89 1 O -7.59554 8.89135 8.1275 6.69696 -1.31747 0.402141 0.84511
90 1 O -7.43663 8.29251 5.60166 6.46298 -0.391379 -0.648308 0.538661
91 1 O -7.33673 6.16209 5.96637 9.06599 0.309136 -0.63721 1.11905
92 1 O -7.46284 6.46115 8.73134 9.01664 1.26217 -1.04096 -0.788454
93 1 O -7.53804 8.73425 5.20933 8.94322 -0.704048 -0.240454 0.716304
94 1 O -7.56424 7.88285 2.87089 6.07337 -0.24958 0.809354 2.90902
95 1 O -7.44111 8.13756 2.49343 8.74735 0.258844 0.517243 -0.539064
96 1 O -7.15509 5.92147 3.28081 8.67314 1.81155 -1.23861 0.923118
