(written by ASE)

96 atoms
2 atom types

0.0      10.129785999999999  xlo xhi
0.0               10.371119  ylo yhi
0.0      10.263142999999999  zlo zhi
     1.7303549999999999                       0                       0  xy xz yz

Atoms # atomic

     1   2      10.402620000000001      9.1007700000000007      7.5949600000000004
     2   2      9.2732399999999995      3.7548499999999998      2.6671800000000001
     3   2      9.0400600000000004                 1.34355      10.084070000000001
     4   2      10.453239999999999      9.2950300000000006      2.5876100000000002
     5   2                10.17723      6.5436999999999994      10.195209999999999
     6   2      8.9929900000000007                 1.34727      5.3807999999999998
     7   2      9.9979700000000005      6.5948599999999988      5.6616400000000002
     8   2      4.0650899999999996      3.6220099999999995      2.5630799999999998
     9   2      1.8646400000000001      4.1836500000000001      5.3728999999999996
    10   2                 1.48071      1.3869799999999999      2.5072199999999998
    11   2      5.3163200000000002      8.7343200000000003      2.6051600000000001
    12   2      2.9204300000000001      9.0526099999999978      4.9396599999999999
    13   2      5.2847900000000001                  8.6997                  7.3567
    14   2      2.5417000000000001      6.8176599999999992      7.9743500000000003
    15   2      4.6323800000000004      6.3092399999999991      5.4192099999999996
    16   2                 4.38713      3.7816799999999997      7.7745100000000003
    17   2                 1.93337      4.0704399999999996      10.180870000000001
    18   2      1.6338200000000001      1.3857699999999997      7.7854599999999996
    19   2      3.8282099999999999      1.1203099999999999      5.1514300000000004
    20   2      2.8216000000000001      9.0753199999999978    0.074579999999999994
    21   2                 1.92977      6.4128499999999988                 2.48325
    22   2      4.8258799999999997       6.249229999999999                 0.35097
    23   2                 3.97174                 1.10832      10.250970000000001
    24   2      7.9245099999999997      9.2197499999999994    0.069279999999999994
    25   2      7.2037899999999997      4.1593099999999996                 0.01406
    26   2      8.0736100000000004      9.4664900000000003      5.0658399999999997
    27   2                 7.74071      6.7411899999999987      2.9478900000000001
    28   2      6.8217699999999999      4.2054299999999998      4.8707200000000004
    29   2      6.7582899999999997      1.3775299999999999      2.6475599999999999
    30   2      7.5690200000000001      6.8938699999999988      8.0873600000000003
    31   2      9.3412299999999995      3.8744699999999996      7.3952900000000001
    32   2      6.4588599999999996                 1.33595      7.7478800000000003
    33   1                 10.2967      2.3016000000000001      6.6798999999999999
    34   1                11.28364      7.6132199999999992      6.6052400000000002
    35   1      11.694599999999999                10.06015      6.3325300000000002
    36   1      11.154059999999999       7.571299999999999      1.2282200000000001
    37   1      8.2387499999999996      2.4641999999999999                  3.7702
    38   1                 10.1568                 2.19171                 1.64256
    39   1     0.84548999999999996      5.0492799999999995      1.4618100000000001
    40   1      7.9368600000000002    0.031960000000000169      3.8280500000000002
    41   1      9.1402400000000004      7.7093499999999988      4.2733400000000001
    42   1                11.77623                10.04279      1.3932100000000001
    43   1      10.619910000000001                 4.90306      6.4888500000000002
    44   1      3.6133899999999999      4.7961099999999988      4.3587899999999999
    45   1      3.0334699999999999      2.1937000000000002      3.7373599999999998
    46   1      4.9971100000000002      1.9658699999999998      1.5431699999999999
    47   1     0.37887999999999999     0.58321999999999985                 4.08352
    48   1      4.7136800000000001      9.9168499999999984      4.0641800000000003
    49   1                 4.02902       7.600649999999999      4.1464299999999996
    50   1                 6.21889      6.9065899999999987      1.5553999999999999
    51   1      6.4933199999999998      9.7570099999999975                 1.36514
    52   1      5.4828799999999998                 4.42157     0.79283999999999999
    53   1                 3.60982      7.9097199999999992      6.4822699999999998
    54   1      3.3220499999999999      5.5030199999999994      6.8399900000000002
    55   1      4.0068000000000001      7.9226099999999988      8.9672999999999998
    56   1      6.0458800000000004      7.0705699999999991                 6.71427
    57   1      1.1409800000000001      5.3288099999999989      9.0299399999999999
    58   1      6.6185799999999997      9.6393099999999983      6.2779199999999999
    59   1      3.5415800000000002      5.2205099999999991      9.2604000000000006
    60   1                 2.73244      2.9860399999999996      6.6982600000000003
    61   1      2.3362500000000002     0.19042000000000003      6.3582999999999998
    62   1      3.1737799999999998                  2.5606      9.1081800000000008
    63   1                 4.85541      1.7213400000000001      6.7730699999999997
    64   1                 1.88174      10.294159999999998      8.8094699999999992
    65   1     0.52978000000000003      2.8170599999999997      9.3034499999999998
    66   1      5.5729100000000003      4.5138600000000002                 6.26417
    67   1      2.4755600000000002     0.16478000000000004      9.1277799999999996
    68   1                11.43374      8.0053599999999996      9.2437699999999996
    69   1      3.4792999999999998      7.6631999999999989                 1.34558
    70   1      3.3777499999999998      5.2419299999999991                 1.62066
    71   1                 1.25339      5.9227399999999992      4.3482200000000004
    72   1      2.5230600000000001      2.8249699999999995      1.4467300000000001
    73   1      4.1863400000000004      10.282119999999999      1.2840499999999999
    74   1     0.84255000000000002      3.4332599999999998      3.6922199999999998
    75   1                 1.61469      8.2843900000000001      3.6140099999999999
    76   1      7.7251799999999999    0.035020000000000162                 8.92469
    77   1      8.8376699999999992       7.696839999999999      9.2928700000000006
    78   1      8.3595799999999993      5.2340299999999997                 1.42825
    79   1      6.1360099999999997      5.8157199999999989      3.9051900000000002
    80   1      8.6305599999999991      5.0077100000000003      3.9250500000000001
    81   1      7.7075399999999998      2.5177499999999999                 1.09511
    82   1      7.6718299999999999     0.21028000000000013                 1.25003
    83   1      5.6280700000000001     0.77673000000000003      4.1492800000000001
    84   1      6.0524399999999998      3.3916199999999996      3.3035399999999999
    85   1      8.6918699999999998      8.0274900000000002      1.6618599999999999
    86   1      6.9347799999999999      8.3839600000000001      3.6281599999999998
    87   1      7.4890999999999996     0.22403000000000015      6.2234999999999996
    88   1      5.6557000000000004     0.77736000000000005      9.3503799999999995
    89   1      8.8913499999999992      8.1274999999999995      6.6969599999999998
    90   1                 8.29251       5.601659999999999      6.4629799999999999
    91   1      6.1620900000000001      5.9663699999999995      9.0659899999999993
    92   1      6.4611499999999999      8.7313399999999994      9.0166400000000007
    93   1      8.7342499999999994      5.2093299999999996      8.9432200000000002
    94   1      7.8828500000000004      2.8708900000000002      6.0733699999999997
    95   1      8.1375600000000006                 2.49343      8.7473500000000008
    96   1      5.9214700000000002      3.2808099999999993      8.6731400000000001
