LAMMPS (2 Aug 2023 - Update 3)
OMP_NUM_THREADS environment is not set. Defaulting to 1 thread. (src/comm.cpp:98)
  using 1 OpenMP thread(s) per MPI task
  units            metal
  boundary         p p p
  box tilt large

The 'box' command has been removed and will be ignored

  read_data        /home/parkyutack/tests_sevennet/checkpoint_test/e3gnn_parallel_211/lammps_stct
Reading data file ...
  triclinic box = (0 0 0) to (10.129786 10.371119 10.263143) with tilt (1.730355 0 0)
  1 by 2 by 1 MPI processor grid
  reading atoms ...
  96 atoms
  read_data CPU = 0.001 seconds

  replicate 2 1 1
Replication is creating a 2x1x1 = 2 times larger system...
  triclinic box = (0 0 0) to (20.259572 10.371119 10.263143) with tilt (1.730355 0 0)
  2 by 1 by 1 MPI processor grid
  192 atoms
  replicate CPU = 0.000 seconds

  mass * 1.0  # do not matter since we don't run MD

  pair_style       e3gnn/parallel
cuda-aware mpi not found, communicate via host device
PairE3GNNParallel using device : CUDA
PairE3GNNParallel cuda-aware mpi: False
  pair_coeff       * * 5 /home/parkyutack/tests_sevennet/checkpoint_test/potential/parallel_0.pt /home/parkyutack/tests_sevennet/checkpoint_test/potential/parallel_1.pt /home/parkyutack/tests_sevennet/checkpoint_test/potential/parallel_2.pt /home/parkyutack/tests_sevennet/checkpoint_test/potential/parallel_3.pt /home/parkyutack/tests_sevennet/checkpoint_test/potential/parallel_4.pt O Hf
Chemical specie 'O' is assigned to type 1
Chemical specie 'Hf' is assigned to type 2
from sevenn version '0.9.3' single precision model trained at 2024-07-30 is loaded

  timestep         0.002

  compute pa all pe/atom

  thermo          1
  fix 1 all nve
  thermo_style    custom step tpcpu pe ke vol pxx pyy pzz pxy pxz pyz press temp
  dump            mydump all custom 1 force.dump id type element c_pa x y z fx fy fz
  dump_modify    mydump sort id element O Hf

  run 0
Generated 0 of 1 mixed pair_coeff terms from geometric mixing rule
Neighbor list info ...
  update: every = 1 steps, delay = 0 steps, check = yes
  max neighbors/atom: 2000, page size: 100000
  master list distance cutoff = 7
  ghost atom cutoff = 7
  binsize = 3.5, bins = 7 3 3
  1 neighbor lists, perpetual/occasional/extra = 1 0 0
  (1) pair e3gnn/parallel, perpetual
      attributes: full, newton on
      pair build: full/bin/atomonly
      stencil: full/bin/3d
      bin: standard
WARNING: PairE3GNNParallel does not support pressure calculation. Pressure on log is wrong. Use serial version if you needed
Per MPI rank memory allocation (min/avg/max) = 7.38 | 7.38 | 7.38 Mbytes
   Step         T/CPU          PotEng         KinEng         Volume          Pxx            Pyy            Pzz            Pxy            Pxz            Pyz           Press           Temp     
         0   0             -1908.6066      0              2156.4345      0              0              0              0              0              0              0              0            
Loop time of 1.55e-06 on 2 procs for 0 steps with 192 atoms

96.8% CPU use with 2 MPI tasks x 1 OpenMP threads

MPI task timing breakdown:
Section |  min time  |  avg time  |  max time  |%varavg| %total
---------------------------------------------------------------
Pair    | 0          | 0          | 0          |   0.0 |  0.00
Neigh   | 0          | 0          | 0          |   0.0 |  0.00
Comm    | 0          | 0          | 0          |   0.0 |  0.00
Output  | 0          | 0          | 0          |   0.0 |  0.00
Modify  | 0          | 0          | 0          |   0.0 |  0.00
Other   |            | 1.55e-06   |            |       |100.00

Nlocal:             96 ave          96 max          96 min
Histogram: 2 0 0 0 0 0 0 0 0 0
Nghost:           1191 ave        1191 max        1191 min
Histogram: 2 0 0 0 0 0 0 0 0 0
Neighs:              0 ave           0 max           0 min
Histogram: 2 0 0 0 0 0 0 0 0 0
FullNghs:        12138 ave       12138 max       12138 min
Histogram: 2 0 0 0 0 0 0 0 0 0

Total # of neighbors = 24276
Ave neighs/atom = 126.4375
Neighbor list builds = 0
Dangerous builds = 0
Total wall time: 0:00:01
