ITEM: TIMESTEP
0
ITEM: NUMBER OF ATOMS
192
ITEM: BOX BOUNDS xy xz yz pp pp pp
0.0000000000000000e+00 2.1989926999999998e+01 1.7303549999999999e+00
0.0000000000000000e+00 1.0371119000000000e+01 0.0000000000000000e+00
0.0000000000000000e+00 1.0263142999999999e+01 0.0000000000000000e+00
ITEM: ATOMS id type element c_pa x y z fx fy fz
1 2 Hf -14.8841 10.4026 9.10077 7.59496 1.19734 2.99585 1.61121
2 2 Hf -14.9956 9.27324 3.75485 2.66718 1.53119 -0.854508 -2.41042
3 2 Hf -14.8199 9.04006 1.34355 10.0841 0.719021 -0.909174 0.924569
4 2 Hf -14.7364 10.4532 9.29503 2.58761 -1.01538 -3.96979 -3.69428
5 2 Hf -14.7122 10.1772 6.5437 10.1952 -2.30551 -1.95572 0.696079
6 2 Hf -15.0296 8.99299 1.34727 5.3808 1.8115 -1.61019 -2.0402
7 2 Hf -14.8656 9.99797 6.59486 5.66164 -3.97793 0.0168245 -2.74411
8 2 Hf -15.0404 4.06509 3.62201 2.56308 1.93033 -0.450328 0.00639005
9 2 Hf -14.8115 1.86464 4.18365 5.3729 1.96122 -0.808812 -4.53734
10 2 Hf -15.0483 1.48071 1.38698 2.50722 0.72229 -1.21663 0.981781
11 2 Hf -14.8574 5.31632 8.73432 2.60516 -1.6281 -0.854307 -2.25855
12 2 Hf -14.9065 2.92043 9.05261 4.93966 -1.35116 3.54556 0.0833913
13 2 Hf -14.6859 5.28479 8.6997 7.3567 -2.14022 3.0353 2.93237
14 2 Hf -14.8012 2.5417 6.81766 7.97435 0.677456 0.0298289 2.55273
15 2 Hf -14.9079 4.63238 6.30924 5.41921 0.65631 -2.4744 -0.431924
16 2 Hf -15.0011 4.38713 3.78168 7.77451 -2.40825 1.76753 -0.647034
17 2 Hf -14.9029 1.93337 4.07044 10.1809 2.08926 -2.67988 1.43302
18 2 Hf -14.9551 1.63382 1.38577 7.78546 -0.238908 -0.176073 2.20669
19 2 Hf -14.8275 3.82821 1.12031 5.15143 -0.445707 -1.29716 0.57165
20 2 Hf -15.0069 2.8216 9.07532 0.07458 0.767182 2.24376 -1.02072
21 2 Hf -14.8895 1.92977 6.41285 2.48325 2.20358 -0.193818 1.63268
22 2 Hf -15.0813 4.82588 6.24923 0.35097 -0.806074 0.172948 -0.799124
23 2 Hf -14.8774 3.97174 1.10832 10.251 -1.95168 -0.844608 2.68592
24 2 Hf -14.8786 7.92451 9.21975 0.06928 1.22832 1.51968 1.3327
25 2 Hf -14.9075 7.20379 4.15931 0.01406 0.70778 -0.115928 -1.87691
26 2 Hf -14.9204 8.07361 9.46649 5.06584 1.55563 -3.37185 -2.17516
27 2 Hf -15.1193 7.74071 6.74119 2.94789 1.40246 -2.24084 -0.696895
28 2 Hf -14.8852 6.82177 4.20543 4.87072 3.48587 0.0779435 -0.962177
29 2 Hf -14.974 6.75829 1.37753 2.64756 -0.466183 3.19907 -1.6857
30 2 Hf -14.8612 7.56902 6.89387 8.08736 0.137817 -3.19798 -2.01228
31 2 Hf -14.8189 9.34123 3.87447 7.39529 -4.7838 -0.326437 3.31309
32 2 Hf -14.7313 6.45886 1.33595 7.74788 3.78783 2.401 0.686305
33 1 O -7.60277 10.2967 2.3016 6.6799 0.250829 -0.590058 -1.29216
34 1 O -7.52812 11.2836 7.61322 6.60524 2.59473 -0.830104 1.04669
35 1 O -7.26393 11.6946 10.0602 6.33253 -1.11048 -0.636644 -0.0481103
36 1 O -7.21344 11.1541 7.5713 1.22822 -0.305711 1.17179 1.44195
37 1 O -7.54403 8.23875 2.4642 3.7702 -0.314723 -0.964839 -0.544468
38 1 O -7.29692 10.1568 2.19171 1.64256 -1.62984 -0.0443664 -2.54516
39 1 O -7.65045 0.84549 5.04928 1.46181 -0.931295 0.0516074 -1.07368
40 1 O -7.48085 7.93686 0.03196 3.82805 -1.59321 1.57151 2.74486
41 1 O -7.46557 9.14024 7.70935 4.27334 0.151079 0.833087 -1.18101
42 1 O -7.36005 11.7762 10.0428 1.39321 1.22989 1.18654 -1.20517
43 1 O -7.36416 10.6199 4.90306 6.48885 1.98394 0.0975754 1.00811
44 1 O -7.4879 3.61339 4.79611 4.35879 -0.357122 -1.01371 -0.779319
45 1 O -7.6012 3.03347 2.1937 3.73736 0.684646 0.49913 0.977167
46 1 O -7.31098 4.99711 1.96587 1.54317 -0.184756 -0.282828 0.436469
47 1 O -7.48874 0.37888 0.58322 4.08352 0.746538 0.0340195 -0.521209
48 1 O -7.58395 4.71368 9.91685 4.06418 -0.698152 0.874066 -0.0165123
49 1 O -7.30687 4.02902 7.60065 4.14643 0.311152 -0.037149 -3.18195
50 1 O -7.42822 6.21889 6.90659 1.5554 -0.8302 1.83525 0.39312
51 1 O -7.28254 6.49332 9.75701 1.36514 1.17557 0.209764 -0.907361
52 1 O -7.19659 5.48288 4.42157 0.79284 -0.368094 -0.326426 1.2269
53 1 O -7.65421 3.60982 7.90972 6.48227 -0.200539 0.0903429 0.373245
54 1 O -7.45369 3.32205 5.50302 6.83999 -0.374039 -1.76113 -1.93203
55 1 O -7.62042 4.0068 7.92261 8.9673 -0.877479 -1.34298 0.147434
56 1 O -7.47142 6.04588 7.07057 6.71427 0.0112291 0.15438 -1.03781
57 1 O -7.36503 1.14098 5.32881 9.02994 -1.04605 3.66531 -2.49651
58 1 O -7.41378 6.61858 9.63931 6.27792 -0.981475 0.92366 0.0400838
59 1 O -7.60898 3.54158 5.22051 9.2604 -0.227797 -0.817862 -0.31575
60 1 O -7.6007 2.73244 2.98604 6.69826 -0.269402 -1.59737 -0.532701
61 1 O -7.64304 2.33625 0.19042 6.3583 1.23342 -0.332583 -0.231612
62 1 O -7.70598 3.17378 2.5606 9.10818 0.0871363 0.912937 -0.245663
63 1 O -7.43572 4.85541 1.72134 6.77307 -0.464763 1.6698 -0.0747706
64 1 O -7.29503 1.88174 10.2942 8.80947 -0.852564 2.30714 0.707166
65 1 O -7.51599 0.52978 2.81706 9.30345 -0.0617444 -0.711496 -0.581588
66 1 O -7.42875 5.57291 4.51386 6.26417 -1.28124 -0.14715 0.795184
67 1 O -7.15913 2.47556 0.16478 9.12778 1.63265 -0.943236 -0.103859
68 1 O -7.66354 11.4337 8.00536 9.24377 -0.628517 -0.919769 -1.71259
69 1 O -7.6384 3.4793 7.6632 1.34558 1.74597 0.0817697 1.03106
70 1 O -7.53168 3.37775 5.24193 1.62066 -0.471882 0.425501 0.0740781
71 1 O -7.37302 1.25339 5.92274 4.34822 0.285724 -0.0139742 -0.119645
72 1 O -7.50763 2.52306 2.82497 1.44673 0.773976 -0.799408 -0.743913
73 1 O -7.54511 4.18634 10.2821 1.28405 -0.416191 0.864558 1.24186
74 1 O -7.22961 0.84255 3.43326 3.69222 0.465035 -0.473839 1.73224
75 1 O -7.44342 1.61469 8.28439 3.61401 1.3608 -0.38209 1.08664
76 1 O -7.41338 7.72518 0.03502 8.92469 0.183813 -1.68342 -0.243394
77 1 O -7.52034 8.83767 7.69684 9.29287 1.27517 1.63331 0.805982
78 1 O -7.5739 8.35958 5.23403 1.42825 -0.274142 -0.121365 -1.22471
79 1 O -7.40775 6.13601 5.81572 3.90519 -0.667493 1.22055 1.59934
80 1 O -7.46215 8.63056 5.00771 3.92505 -0.873239 2.46133 2.50821
81 1 O -7.54438 7.70754 2.51775 1.09511 0.584058 2.2043 -0.58246
82 1 O -7.44665 7.67183 0.21028 1.25003 -1.16286 -1.28902 -0.942739
83 1 O -7.62696 5.62807 0.77673 4.14928 -2.31662 -0.165546 1.27794
84 1 O -7.36537 6.05244 3.39162 3.30354 -1.50381 -1.36597 -0.313658
85 1 O -7.45043 8.69187 8.02749 1.66186 1.13706 1.09548 -1.15669
86 1 O -7.40296 6.93478 8.38396 3.62816 -1.09658 1.93435 1.65735
87 1 O -7.71709 7.4891 0.22403 6.2235 0.358419 1.10874 2.52576
88 1 O -7.3394 5.6557 0.77736 9.35038 -1.92337 -0.903597 1.62788
89 1 O -7.59554 8.89135 8.1275 6.69696 -1.31747 0.402141 0.845111
90 1 O -7.43664 8.29251 5.60166 6.46298 -0.39138 -0.648308 0.538661
91 1 O -7.33673 6.16209 5.96637 9.06599 0.309137 -0.63721 1.11905
92 1 O -7.46284 6.46115 8.73134 9.01664 1.26217 -1.04096 -0.788452
93 1 O -7.53804 8.73425 5.20933 8.94322 -0.704046 -0.240454 0.716305
94 1 O -7.56424 7.88285 2.87089 6.07337 -0.24958 0.809351 2.90902
95 1 O -7.44111 8.13756 2.49343 8.74735 0.258846 0.517243 -0.539063
96 1 O -7.15509 5.92147 3.28081 8.67314 1.81155 -1.23861 0.923118
97 2 Hf -14.8841 20.5324 9.10077 7.59496 1.19735 2.99585 1.61121
98 2 Hf -14.9956 19.403 3.75485 2.66718 1.53118 -0.854503 -2.41042
99 2 Hf -14.8199 19.1698 1.34355 10.0841 0.719014 -0.909178 0.924572
100 2 Hf -14.7364 20.583 9.29503 2.58761 -1.01537 -3.9698 -3.69427
101 2 Hf -14.7122 20.307 6.5437 10.1952 -2.30552 -1.95571 0.696076
102 2 Hf -15.0296 19.1228 1.34727 5.3808 1.8115 -1.61019 -2.04021
103 2 Hf -14.8656 20.1278 6.59486 5.66164 -3.97792 0.0168307 -2.74412
104 2 Hf -15.0404 14.1949 3.62201 2.56308 1.93033 -0.450332 0.00639156
105 2 Hf -14.8115 11.9944 4.18365 5.3729 1.96119 -0.808793 -4.5373
106 2 Hf -15.0483 11.6105 1.38698 2.50722 0.722245 -1.2166 0.981751
107 2 Hf -14.8574 15.4461 8.73432 2.60516 -1.62809 -0.85431 -2.25855
108 2 Hf -14.9065 13.0502 9.05261 4.93966 -1.35116 3.54557 0.0833918
109 2 Hf -14.6859 15.4146 8.6997 7.3567 -2.14021 3.0353 2.93237
110 2 Hf -14.8012 12.6715 6.81766 7.97435 0.677458 0.0298249 2.55273
111 2 Hf -14.9079 14.7622 6.30924 5.41921 0.656314 -2.4744 -0.431924
112 2 Hf -15.0011 14.5169 3.78168 7.77451 -2.40825 1.76753 -0.647036
113 2 Hf -14.9029 12.0632 4.07044 10.1809 2.08925 -2.67989 1.43302
114 2 Hf -14.9551 11.7636 1.38577 7.78546 -0.238932 -0.176055 2.20669
115 2 Hf -14.8275 13.958 1.12031 5.15143 -0.445706 -1.29716 0.571647
116 2 Hf -15.0069 12.9514 9.07532 0.07458 0.76718 2.24376 -1.02072
117 2 Hf -14.8895 12.0596 6.41285 2.48325 2.20357 -0.193799 1.63266
118 2 Hf -15.0813 14.9557 6.24923 0.35097 -0.806061 0.172946 -0.799121
119 2 Hf -14.8774 14.1015 1.10832 10.251 -1.95168 -0.844606 2.68593
120 2 Hf -14.8786 18.0543 9.21975 0.06928 1.22832 1.51968 1.3327
121 2 Hf -14.9075 17.3336 4.15931 0.01406 0.707784 -0.115922 -1.8769
122 2 Hf -14.9204 18.2034 9.46649 5.06584 1.55563 -3.37185 -2.17516
123 2 Hf -15.1193 17.8705 6.74119 2.94789 1.40246 -2.24084 -0.696897
124 2 Hf -14.8852 16.9516 4.20543 4.87072 3.48588 0.0779394 -0.962185
125 2 Hf -14.974 16.8881 1.37753 2.64756 -0.466181 3.19907 -1.6857
126 2 Hf -14.8612 17.6988 6.89387 8.08736 0.13782 -3.19798 -2.01228
127 2 Hf -14.8188 19.471 3.87447 7.39529 -4.78381 -0.326427 3.31309
128 2 Hf -14.7313 16.5886 1.33595 7.74788 3.78783 2.401 0.686302
129 1 O -7.60277 20.4265 2.3016 6.6799 0.250813 -0.590046 -1.29217
130 1 O -7.52811 21.4134 7.61322 6.60524 2.59473 -0.830103 1.04669
131 1 O -7.26393 21.8244 10.0602 6.33253 -1.11048 -0.636643 -0.0481055
132 1 O -7.21344 21.2838 7.5713 1.22822 -0.305738 1.17181 1.44194
133 1 O -7.54403 18.3685 2.4642 3.7702 -0.314726 -0.964842 -0.544469
134 1 O -7.29691 20.2866 2.19171 1.64256 -1.6299 -0.0443458 -2.5452
135 1 O -7.65045 10.9753 5.04928 1.46181 -0.931302 0.0516052 -1.07367
136 1 O -7.48085 18.0666 0.03196 3.82805 -1.59322 1.5715 2.74486
137 1 O -7.46557 19.27 7.70935 4.27334 0.15108 0.833087 -1.181
138 1 O -7.36005 21.906 10.0428 1.39321 1.22989 1.18655 -1.20517
139 1 O -7.36416 20.7497 4.90306 6.48885 1.98391 0.0975856 1.00814
140 1 O -7.4879 13.7432 4.79611 4.35879 -0.357126 -1.01371 -0.779318
141 1 O -7.6012 13.1633 2.1937 3.73736 0.684643 0.499129 0.977167
142 1 O -7.31098 15.1269 1.96587 1.54317 -0.184757 -0.282828 0.436467
143 1 O -7.48874 10.5087 0.58322 4.08352 0.746534 0.0340201 -0.521205
144 1 O -7.58395 14.8435 9.91685 4.06418 -0.698155 0.874067 -0.0165119
145 1 O -7.30687 14.1588 7.60065 4.14643 0.311152 -0.0371489 -3.18195
146 1 O -7.42822 16.3487 6.90659 1.5554 -0.830208 1.83525 0.393116
147 1 O -7.28254 16.6231 9.75701 1.36514 1.17557 0.209765 -0.907362
148 1 O -7.19659 15.6127 4.42157 0.79284 -0.368095 -0.326426 1.2269
149 1 O -7.65421 13.7396 7.90972 6.48227 -0.200545 0.0903416 0.373244
150 1 O -7.45369 13.4518 5.50302 6.83999 -0.374037 -1.76114 -1.93203
151 1 O -7.62042 14.1366 7.92261 8.9673 -0.877485 -1.34298 0.147436
152 1 O -7.47142 16.1757 7.07057 6.71427 0.0112187 0.154384 -1.03781
153 1 O -7.36503 11.2708 5.32881 9.02994 -1.04606 3.66532 -2.49651
154 1 O -7.41378 16.7484 9.63931 6.27792 -0.981473 0.923663 0.0400811
155 1 O -7.60898 13.6714 5.22051 9.2604 -0.227794 -0.81786 -0.315751
156 1 O -7.6007 12.8622 2.98604 6.69826 -0.269405 -1.59737 -0.532701
157 1 O -7.64304 12.466 0.19042 6.3583 1.23341 -0.332585 -0.231611
158 1 O -7.70598 13.3036 2.5606 9.10818 0.0871381 0.912938 -0.245663
159 1 O -7.43572 14.9852 1.72134 6.77307 -0.464765 1.6698 -0.0747714
160 1 O -7.29502 12.0115 10.2942 8.80947 -0.852564 2.30714 0.707164
161 1 O -7.51599 10.6596 2.81706 9.30345 -0.0617454 -0.711494 -0.581587
162 1 O -7.42875 15.7027 4.51386 6.26417 -1.28124 -0.147148 0.79519
163 1 O -7.15913 12.6053 0.16478 9.12778 1.63265 -0.943237 -0.103861
164 1 O -7.66354 21.5635 8.00536 9.24377 -0.628516 -0.919771 -1.71259
165 1 O -7.6384 13.6091 7.6632 1.34558 1.74596 0.081771 1.03106
166 1 O -7.53168 13.5075 5.24193 1.62066 -0.471885 0.425505 0.0740773
167 1 O -7.37302 11.3832 5.92274 4.34822 0.285727 -0.0139733 -0.119652
168 1 O -7.50763 12.6528 2.82497 1.44673 0.773967 -0.799411 -0.743911
169 1 O -7.54511 14.3161 10.2821 1.28405 -0.416192 0.864556 1.24186
170 1 O -7.22961 10.9723 3.43326 3.69222 0.465028 -0.473839 1.73223
171 1 O -7.44342 11.7445 8.28439 3.61401 1.36081 -0.382095 1.08665
172 1 O -7.41338 17.855 0.03502 8.92469 0.183818 -1.68342 -0.243392
173 1 O -7.52034 18.9675 7.69684 9.29287 1.27517 1.63332 0.805981
174 1 O -7.5739 18.4894 5.23403 1.42825 -0.274152 -0.121363 -1.22471
175 1 O -7.40775 16.2658 5.81572 3.90519 -0.667499 1.22055 1.59934
176 1 O -7.46215 18.7603 5.00771 3.92505 -0.873241 2.46133 2.50821
177 1 O -7.54438 17.8373 2.51775 1.09511 0.584059 2.2043 -0.582464
178 1 O -7.44665 17.8016 0.21028 1.25003 -1.16286 -1.28902 -0.94274
179 1 O -7.62696 15.7579 0.77673 4.14928 -2.31663 -0.165546 1.27795
180 1 O -7.36537 16.1822 3.39162 3.30354 -1.50381 -1.36597 -0.313659
181 1 O -7.45043 18.8217 8.02749 1.66186 1.13707 1.09548 -1.15669
182 1 O -7.40296 17.0646 8.38396 3.62816 -1.09658 1.93435 1.65735
183 1 O -7.71709 17.6189 0.22403 6.2235 0.358408 1.10873 2.52576
184 1 O -7.3394 15.7855 0.77736 9.35038 -1.92337 -0.903594 1.62788
185 1 O -7.59554 19.0211 8.1275 6.69696 -1.31747 0.402142 0.845108
186 1 O -7.43664 18.4223 5.60166 6.46298 -0.391382 -0.64831 0.538662
187 1 O -7.33673 16.2919 5.96637 9.06599 0.309136 -0.63721 1.11905
188 1 O -7.46284 16.5909 8.73134 9.01664 1.26217 -1.04096 -0.788453
189 1 O -7.53804 18.864 5.20933 8.94322 -0.704054 -0.240455 0.716304
190 1 O -7.56424 18.0126 2.87089 6.07337 -0.24958 0.809356 2.90902
191 1 O -7.44111 18.2673 2.49343 8.74735 0.258847 0.517242 -0.539065
192 1 O -7.15509 16.0513 3.28081 8.67314 1.81155 -1.23861 0.923118
